LAMMPS Description

     358  atoms
     357  bonds
     662  angles
     1059  dihedrals
     0  impropers

     6  atom types
     16  bond types
     54  angle types
     201  dihedral types

  0.0 800.0 xlo xhi
  0.0 800.0 ylo yhi
  0.0 800.0 zlo zhi

Masses

    1 12.011 #CT "Alkane CH3-" 6 partial charge=-0.18
    2 12.011 #CT "Alkane -CH2-" 6 partial charge=-0.12
    3 1.008 #HC "Alkane H-C" 1 partial charge=0.06
    4 15.999 #OH "Alcohol -OH" 8 partial charge=-0.683
    5 1.008 #HO "Alcohol -OH" 1 partial charge=0.418
    6 12.011 #CT "Alcohol R2CHOH" 6 partial charge=0.205

Atoms # full

1 1 2  0.000     338.406761500000     399.650000000000     400.000000000000
2 1 3  0.000     338.406761500000     400.281044000000     400.892431000000
3 1 3  0.000     338.406761500000     400.281044000000     399.107569000000
4 1 2  0.000     340.913405500000     399.650000000000     400.000000000000
5 1 3  0.000     340.913405500000     400.281044000000     400.892431000000
6 1 3  0.000     340.913405500000     400.281044000000     399.107569000000
7 1 2  0.000     343.420050500000     399.650000000000     400.000000000000
8 1 3  0.000     343.420050500000     400.281044000000     400.892431000000
9 1 3  0.000     343.420050500000     400.281044000000     399.107569000000
10 1 2  0.000     345.926695500000     399.650000000000     400.000000000000
11 1 3  0.000     345.926695500000     400.281044000000     400.892431000000
12 1 3  0.000     345.926695500000     400.281044000000     399.107569000000
13 1 2  0.000     348.433339500000     399.650000000000     400.000000000000
14 1 3  0.000     348.433339500000     400.281044000000     400.892431000000
15 1 3  0.000     348.433339500000     400.281044000000     399.107569000000
16 1 2  0.000     350.939984500000     399.650000000000     400.000000000000
17 1 3  0.000     350.939984500000     400.281044000000     400.892431000000
18 1 3  0.000     350.939984500000     400.281044000000     399.107569000000
19 1 2  0.000     353.446628500000     399.650000000000     400.000000000000
20 1 3  0.000     353.446628500000     400.281044000000     400.892431000000
21 1 3  0.000     353.446628500000     400.281044000000     399.107569000000
22 1 2  0.000     355.953274500000     399.650000000000     400.000000000000
23 1 3  0.000     355.953274500000     400.281044000000     400.892431000000
24 1 3  0.000     355.953274500000     400.281044000000     399.107569000000
25 1 2  0.000     358.459917500000     399.650000000000     400.000000000000
26 1 3  0.000     358.459917500000     400.281044000000     400.892431000000
27 1 3  0.000     358.459917500000     400.281044000000     399.107569000000
28 1 2  0.000     360.966562500000     399.650000000000     400.000000000000
29 1 3  0.000     360.966562500000     400.281044000000     400.892431000000
30 1 3  0.000     360.966562500000     400.281044000000     399.107569000000
31 1 2  0.000     363.473207500000     399.650000000000     400.000000000000
32 1 3  0.000     363.473207500000     400.281044000000     400.892431000000
33 1 3  0.000     363.473207500000     400.281044000000     399.107569000000
34 1 2  0.000     365.979853500000     399.650000000000     400.000000000000
35 1 3  0.000     365.979853500000     400.281044000000     400.892431000000
36 1 3  0.000     365.979853500000     400.281044000000     399.107569000000
37 1 2  0.000     368.486496500000     399.650000000000     400.000000000000
38 1 3  0.000     368.486496500000     400.281044000000     400.892431000000
39 1 3  0.000     368.486496500000     400.281044000000     399.107569000000
40 1 2  0.000     370.993141500000     399.650000000000     400.000000000000
41 1 3  0.000     370.993141500000     400.281044000000     400.892431000000
42 1 3  0.000     370.993141500000     400.281044000000     399.107569000000
43 1 2  0.000     373.499786500000     399.650000000000     400.000000000000
44 1 3  0.000     373.499786500000     400.281044000000     400.892431000000
45 1 3  0.000     373.499786500000     400.281044000000     399.107569000000
46 1 2  0.000     376.006431500000     399.650000000000     400.000000000000
47 1 3  0.000     376.006431500000     400.281044000000     400.892431000000
48 1 3  0.000     376.006431500000     400.281044000000     399.107569000000
49 1 2  0.000     378.513073500000     399.650000000000     400.000000000000
50 1 3  0.000     378.513073500000     400.281044000000     400.892431000000
51 1 3  0.000     378.513073500000     400.281044000000     399.107569000000
52 1 2  0.000     381.019718500000     399.650000000000     400.000000000000
53 1 3  0.000     381.019718500000     400.281044000000     400.892431000000
54 1 3  0.000     381.019718500000     400.281044000000     399.107569000000
55 1 2  0.000     383.526363500000     399.650000000000     400.000000000000
56 1 3  0.000     383.526363500000     400.281044000000     400.892431000000
57 1 3  0.000     383.526363500000     400.281044000000     399.107569000000
58 1 2  0.000     386.033008500000     399.650000000000     400.000000000000
59 1 3  0.000     386.033008500000     400.281044000000     400.892431000000
60 1 3  0.000     386.033008500000     400.281044000000     399.107569000000
61 1 2  0.000     388.539654500000     399.650000000000     400.000000000000
62 1 3  0.000     388.539654500000     400.281044000000     400.892431000000
63 1 3  0.000     388.539654500000     400.281044000000     399.107569000000
64 1 2  0.000     391.046299500000     399.650000000000     400.000000000000
65 1 3  0.000     391.046299500000     400.281044000000     400.892431000000
66 1 3  0.000     391.046299500000     400.281044000000     399.107569000000
67 1 2  0.000     393.552944500000     399.650000000000     400.000000000000
68 1 3  0.000     393.552944500000     400.281044000000     400.892431000000
69 1 3  0.000     393.552944500000     400.281044000000     399.107569000000
70 1 2  0.000     396.059585500000     399.650000000000     400.000000000000
71 1 3  0.000     396.059585500000     400.281044000000     400.892431000000
72 1 3  0.000     396.059585500000     400.281044000000     399.107569000000
73 1 2  0.000     398.566231500000     399.650000000000     400.000000000000
74 1 3  0.000     398.566231500000     400.281044000000     400.892431000000
75 1 3  0.000     398.566231500000     400.281044000000     399.107569000000
76 1 2  0.000     401.072876500000     399.650000000000     400.000000000000
77 1 3  0.000     401.072876500000     400.281044000000     400.892431000000
78 1 3  0.000     401.072876500000     400.281044000000     399.107569000000
79 1 2  0.000     403.579521500000     399.650000000000     400.000000000000
80 1 3  0.000     403.579521500000     400.281044000000     400.892431000000
81 1 3  0.000     403.579521500000     400.281044000000     399.107569000000
82 1 2  0.000     406.086166500000     399.650000000000     400.000000000000
83 1 3  0.000     406.086166500000     400.281044000000     400.892431000000
84 1 3  0.000     406.086166500000     400.281044000000     399.107569000000
85 1 2  0.000     408.592811500000     399.650000000000     400.000000000000
86 1 3  0.000     408.592811500000     400.281044000000     400.892431000000
87 1 3  0.000     408.592811500000     400.281044000000     399.107569000000
88 1 2  0.000     411.099457500000     399.650000000000     400.000000000000
89 1 3  0.000     411.099457500000     400.281044000000     400.892431000000
90 1 3  0.000     411.099457500000     400.281044000000     399.107569000000
91 1 2  0.000     413.606102500000     399.650000000000     400.000000000000
92 1 3  0.000     413.606102500000     400.281044000000     400.892431000000
93 1 3  0.000     413.606102500000     400.281044000000     399.107569000000
94 1 2  0.000     416.112747500000     399.650000000000     400.000000000000
95 1 3  0.000     416.112747500000     400.281044000000     400.892431000000
96 1 3  0.000     416.112747500000     400.281044000000     399.107569000000
97 1 2  0.000     418.619385500000     399.650000000000     400.000000000000
98 1 3  0.000     418.619385500000     400.281044000000     400.892431000000
99 1 3  0.000     418.619385500000     400.281044000000     399.107569000000
100 1 2  0.000     421.126030500000     399.650000000000     400.000000000000
101 1 3  0.000     421.126030500000     400.281044000000     400.892431000000
102 1 3  0.000     421.126030500000     400.281044000000     399.107569000000
103 1 2  0.000     423.632675500000     399.650000000000     400.000000000000
104 1 3  0.000     423.632675500000     400.281044000000     400.892431000000
105 1 3  0.000     423.632675500000     400.281044000000     399.107569000000
106 1 2  0.000     426.139320500000     399.650000000000     400.000000000000
107 1 3  0.000     426.139320500000     400.281044000000     400.892431000000
108 1 3  0.000     426.139320500000     400.281044000000     399.107569000000
109 1 2  0.000     428.645965500000     399.650000000000     400.000000000000
110 1 3  0.000     428.645965500000     400.281044000000     400.892431000000
111 1 3  0.000     428.645965500000     400.281044000000     399.107569000000
112 1 2  0.000     431.152611500000     399.650000000000     400.000000000000
113 1 3  0.000     431.152611500000     400.281044000000     400.892431000000
114 1 3  0.000     431.152611500000     400.281044000000     399.107569000000
115 1 2  0.000     433.659256500000     399.650000000000     400.000000000000
116 1 3  0.000     433.659256500000     400.281044000000     400.892431000000
117 1 3  0.000     433.659256500000     400.281044000000     399.107569000000
118 1 2  0.000     436.165901500000     399.650000000000     400.000000000000
119 1 3  0.000     436.165901500000     400.281044000000     400.892431000000
120 1 3  0.000     436.165901500000     400.281044000000     399.107569000000
121 1 2  0.000     438.672546500000     399.650000000000     400.000000000000
122 1 3  0.000     438.672546500000     400.281044000000     400.892431000000
123 1 3  0.000     438.672546500000     400.281044000000     399.107569000000
124 1 2  0.000     441.179191500000     399.650000000000     400.000000000000
125 1 3  0.000     441.179191500000     400.281044000000     400.892431000000
126 1 3  0.000     441.179191500000     400.281044000000     399.107569000000
127 1 2  0.000     443.685837500000     399.650000000000     400.000000000000
128 1 3  0.000     443.685837500000     400.281044000000     400.892431000000
129 1 3  0.000     443.685837500000     400.281044000000     399.107569000000
130 1 2  0.000     446.192482500000     399.650000000000     400.000000000000
131 1 3  0.000     446.192482500000     400.281044000000     400.892431000000
132 1 3  0.000     446.192482500000     400.281044000000     399.107569000000
133 1 2  0.000     448.699127500000     399.650000000000     400.000000000000
134 1 3  0.000     448.699127500000     400.281044000000     400.892431000000
135 1 3  0.000     448.699127500000     400.281044000000     399.107569000000
136 1 2  0.000     451.205765500000     399.650000000000     400.000000000000
137 1 3  0.000     451.205765500000     400.281044000000     400.892431000000
138 1 3  0.000     451.205765500000     400.281044000000     399.107569000000
139 1 2  0.000     453.712410500000     399.650000000000     400.000000000000
140 1 3  0.000     453.712410500000     400.281044000000     400.892431000000
141 1 3  0.000     453.712410500000     400.281044000000     399.107569000000
142 1 2  0.000     456.219055500000     399.650000000000     400.000000000000
143 1 3  0.000     456.219055500000     400.281044000000     400.892431000000
144 1 3  0.000     456.219055500000     400.281044000000     399.107569000000
145 1 2  0.000     458.725700500000     399.650000000000     400.000000000000
146 1 3  0.000     458.725700500000     400.281044000000     400.892431000000
147 1 3  0.000     458.725700500000     400.281044000000     399.107569000000
148 1 2  0.000     461.232345500000     399.650000000000     400.000000000000
149 1 3  0.000     461.232345500000     400.281044000000     400.892431000000
150 1 3  0.000     461.232345500000     400.281044000000     399.107569000000
151 1 6  0.000     339.660083500000     400.150000000000     400.000000000000
152 1 3  0.000     339.660083500000     400.881044000000     399.307569000000
153 1 4  0.000     339.660083500000     400.981044000000     400.792431000000
154 1 5  0.000     340.243783500000     400.981044000000     400.792431000000
155 1 6  0.000     342.166728500000     400.150000000000     400.000000000000
156 1 3  0.000     342.166728500000     400.881044000000     399.307569000000
157 1 4  0.000     342.166728500000     400.981044000000     400.792431000000
158 1 5  0.000     342.750428500000     400.981044000000     400.792431000000
159 1 6  0.000     344.673373500000     400.150000000000     400.000000000000
160 1 3  0.000     344.673373500000     400.881044000000     399.307569000000
161 1 4  0.000     344.673373500000     400.981044000000     400.792431000000
162 1 5  0.000     345.257072500000     400.981044000000     400.792431000000
163 1 6  0.000     347.180017500000     400.150000000000     400.000000000000
164 1 3  0.000     347.180017500000     400.881044000000     399.307569000000
165 1 4  0.000     347.180017500000     400.981044000000     400.792431000000
166 1 5  0.000     347.763717500000     400.981044000000     400.792431000000
167 1 6  0.000     349.686662500000     400.150000000000     400.000000000000
168 1 3  0.000     349.686662500000     400.881044000000     399.307569000000
169 1 4  0.000     349.686662500000     400.981044000000     400.792431000000
170 1 5  0.000     350.270362500000     400.981044000000     400.792431000000
171 1 6  0.000     352.193306500000     400.150000000000     400.000000000000
172 1 3  0.000     352.193306500000     400.881044000000     399.307569000000
173 1 4  0.000     352.193306500000     400.981044000000     400.792431000000
174 1 5  0.000     352.777006500000     400.981044000000     400.792431000000
175 1 6  0.000     354.699951500000     400.150000000000     400.000000000000
176 1 3  0.000     354.699951500000     400.881044000000     399.307569000000
177 1 4  0.000     354.699951500000     400.981044000000     400.792431000000
178 1 5  0.000     355.283651500000     400.981044000000     400.792431000000
179 1 6  0.000     357.206596500000     400.150000000000     400.000000000000
180 1 3  0.000     357.206596500000     400.881044000000     399.307569000000
181 1 4  0.000     357.206596500000     400.981044000000     400.792431000000
182 1 5  0.000     357.790294500000     400.981044000000     400.792431000000
183 1 6  0.000     359.713240500000     400.150000000000     400.000000000000
184 1 3  0.000     359.713240500000     400.881044000000     399.307569000000
185 1 4  0.000     359.713240500000     400.981044000000     400.792431000000
186 1 5  0.000     360.296940500000     400.981044000000     400.792431000000
187 1 6  0.000     362.219885500000     400.150000000000     400.000000000000
188 1 3  0.000     362.219885500000     400.881044000000     399.307569000000
189 1 4  0.000     362.219885500000     400.981044000000     400.792431000000
190 1 5  0.000     362.803585500000     400.981044000000     400.792431000000
191 1 6  0.000     364.726530500000     400.150000000000     400.000000000000
192 1 3  0.000     364.726530500000     400.881044000000     399.307569000000
193 1 4  0.000     364.726530500000     400.981044000000     400.792431000000
194 1 5  0.000     365.310230500000     400.981044000000     400.792431000000
195 1 6  0.000     367.233173500000     400.150000000000     400.000000000000
196 1 3  0.000     367.233173500000     400.881044000000     399.307569000000
197 1 4  0.000     367.233173500000     400.981044000000     400.792431000000
198 1 5  0.000     367.816873500000     400.981044000000     400.792431000000
199 1 6  0.000     369.739818500000     400.150000000000     400.000000000000
200 1 3  0.000     369.739818500000     400.881044000000     399.307569000000
201 1 4  0.000     369.739818500000     400.981044000000     400.792431000000
202 1 5  0.000     370.323519500000     400.981044000000     400.792431000000
203 1 6  0.000     372.246464500000     400.150000000000     400.000000000000
204 1 3  0.000     372.246464500000     400.881044000000     399.307569000000
205 1 4  0.000     372.246464500000     400.981044000000     400.792431000000
206 1 5  0.000     372.830162500000     400.981044000000     400.792431000000
207 1 6  0.000     374.753109500000     400.150000000000     400.000000000000
208 1 3  0.000     374.753109500000     400.881044000000     399.307569000000
209 1 4  0.000     374.753109500000     400.981044000000     400.792431000000
210 1 5  0.000     375.336807500000     400.981044000000     400.792431000000
211 1 6  0.000     377.259754500000     400.150000000000     400.000000000000
212 1 3  0.000     377.259754500000     400.881044000000     399.307569000000
213 1 4  0.000     377.259754500000     400.981044000000     400.792431000000
214 1 5  0.000     377.843452500000     400.981044000000     400.792431000000
215 1 6  0.000     379.766395500000     400.150000000000     400.000000000000
216 1 3  0.000     379.766395500000     400.881044000000     399.307569000000
217 1 4  0.000     379.766395500000     400.981044000000     400.792431000000
218 1 5  0.000     380.350097500000     400.981044000000     400.792431000000
219 1 6  0.000     382.273041500000     400.150000000000     400.000000000000
220 1 3  0.000     382.273041500000     400.881044000000     399.307569000000
221 1 4  0.000     382.273041500000     400.981044000000     400.792431000000
222 1 5  0.000     382.856743500000     400.981044000000     400.792431000000
223 1 6  0.000     384.779686500000     400.150000000000     400.000000000000
224 1 3  0.000     384.779686500000     400.881044000000     399.307569000000
225 1 4  0.000     384.779686500000     400.981044000000     400.792431000000
226 1 5  0.000     385.363388500000     400.981044000000     400.792431000000
227 1 6  0.000     387.286331500000     400.150000000000     400.000000000000
228 1 3  0.000     387.286331500000     400.881044000000     399.307569000000
229 1 4  0.000     387.286331500000     400.981044000000     400.792431000000
230 1 5  0.000     387.870029500000     400.981044000000     400.792431000000
231 1 6  0.000     389.792976500000     400.150000000000     400.000000000000
232 1 3  0.000     389.792976500000     400.881044000000     399.307569000000
233 1 4  0.000     389.792976500000     400.981044000000     400.792431000000
234 1 5  0.000     390.376674500000     400.981044000000     400.792431000000
235 1 6  0.000     392.299621500000     400.150000000000     400.000000000000
236 1 3  0.000     392.299621500000     400.881044000000     399.307569000000
237 1 4  0.000     392.299621500000     400.981044000000     400.792431000000
238 1 5  0.000     392.883320500000     400.981044000000     400.792431000000
239 1 6  0.000     394.806263500000     400.150000000000     400.000000000000
240 1 3  0.000     394.806263500000     400.881044000000     399.307569000000
241 1 4  0.000     394.806263500000     400.981044000000     400.792431000000
242 1 5  0.000     395.389965500000     400.981044000000     400.792431000000
243 1 6  0.000     397.312908500000     400.150000000000     400.000000000000
244 1 3  0.000     397.312908500000     400.881044000000     399.307569000000
245 1 4  0.000     397.312908500000     400.981044000000     400.792431000000
246 1 5  0.000     397.896610500000     400.981044000000     400.792431000000
247 1 6  0.000     399.819553500000     400.150000000000     400.000000000000
248 1 3  0.000     399.819553500000     400.881044000000     399.307569000000
249 1 4  0.000     399.819553500000     400.981044000000     400.792431000000
250 1 5  0.000     400.403255500000     400.981044000000     400.792431000000
251 1 6  0.000     402.326198500000     400.150000000000     400.000000000000
252 1 3  0.000     402.326198500000     400.881044000000     399.307569000000
253 1 4  0.000     402.326198500000     400.981044000000     400.792431000000
254 1 5  0.000     402.909897500000     400.981044000000     400.792431000000
255 1 6  0.000     404.832840500000     400.150000000000     400.000000000000
256 1 3  0.000     404.832840500000     400.881044000000     399.307569000000
257 1 4  0.000     404.832840500000     400.981044000000     400.792431000000
258 1 5  0.000     405.416542500000     400.981044000000     400.792431000000
259 1 6  0.000     407.339485500000     400.150000000000     400.000000000000
260 1 3  0.000     407.339485500000     400.881044000000     399.307569000000
261 1 4  0.000     407.339485500000     400.981044000000     400.792431000000
262 1 5  0.000     407.923187500000     400.981044000000     400.792431000000
263 1 6  0.000     409.846130500000     400.150000000000     400.000000000000
264 1 3  0.000     409.846130500000     400.881044000000     399.307569000000
265 1 4  0.000     409.846130500000     400.981044000000     400.792431000000
266 1 5  0.000     410.429832500000     400.981044000000     400.792431000000
267 1 6  0.000     412.352775500000     400.150000000000     400.000000000000
268 1 3  0.000     412.352775500000     400.881044000000     399.307569000000
269 1 4  0.000     412.352775500000     400.981044000000     400.792431000000
270 1 5  0.000     412.936477500000     400.981044000000     400.792431000000
271 1 6  0.000     414.859421500000     400.150000000000     400.000000000000
272 1 3  0.000     414.859421500000     400.881044000000     399.307569000000
273 1 4  0.000     414.859421500000     400.981044000000     400.792431000000
274 1 5  0.000     415.443123500000     400.981044000000     400.792431000000
275 1 6  0.000     417.366066500000     400.150000000000     400.000000000000
276 1 3  0.000     417.366066500000     400.881044000000     399.307569000000
277 1 4  0.000     417.366066500000     400.981044000000     400.792431000000
278 1 5  0.000     417.949768500000     400.981044000000     400.792431000000
279 1 6  0.000     419.872711500000     400.150000000000     400.000000000000
280 1 3  0.000     419.872711500000     400.881044000000     399.307569000000
281 1 4  0.000     419.872711500000     400.981044000000     400.792431000000
282 1 5  0.000     420.456413500000     400.981044000000     400.792431000000
283 1 6  0.000     422.379356500000     400.150000000000     400.000000000000
284 1 3  0.000     422.379356500000     400.881044000000     399.307569000000
285 1 4  0.000     422.379356500000     400.981044000000     400.792431000000
286 1 5  0.000     422.963058500000     400.981044000000     400.792431000000
287 1 6  0.000     424.886001500000     400.150000000000     400.000000000000
288 1 3  0.000     424.886001500000     400.881044000000     399.307569000000
289 1 4  0.000     424.886001500000     400.981044000000     400.792431000000
290 1 5  0.000     425.469696500000     400.981044000000     400.792431000000
291 1 6  0.000     427.392647500000     400.150000000000     400.000000000000
292 1 3  0.000     427.392647500000     400.881044000000     399.307569000000
293 1 4  0.000     427.392647500000     400.981044000000     400.792431000000
294 1 5  0.000     427.976341500000     400.981044000000     400.792431000000
295 1 6  0.000     429.899292500000     400.150000000000     400.000000000000
296 1 3  0.000     429.899292500000     400.881044000000     399.307569000000
297 1 4  0.000     429.899292500000     400.981044000000     400.792431000000
298 1 5  0.000     430.482986500000     400.981044000000     400.792431000000
299 1 6  0.000     432.405937500000     400.150000000000     400.000000000000
300 1 3  0.000     432.405937500000     400.881044000000     399.307569000000
301 1 4  0.000     432.405937500000     400.981044000000     400.792431000000
302 1 5  0.000     432.989631500000     400.981044000000     400.792431000000
303 1 6  0.000     434.912575500000     400.150000000000     400.000000000000
304 1 3  0.000     434.912575500000     400.881044000000     399.307569000000
305 1 4  0.000     434.912575500000     400.981044000000     400.792431000000
306 1 5  0.000     435.496277500000     400.981044000000     400.792431000000
307 1 6  0.000     437.419220500000     400.150000000000     400.000000000000
308 1 3  0.000     437.419220500000     400.881044000000     399.307569000000
309 1 4  0.000     437.419220500000     400.981044000000     400.792431000000
310 1 5  0.000     438.002922500000     400.981044000000     400.792431000000
311 1 6  0.000     439.925865500000     400.150000000000     400.000000000000
312 1 3  0.000     439.925865500000     400.881044000000     399.307569000000
313 1 4  0.000     439.925865500000     400.981044000000     400.792431000000
314 1 5  0.000     440.509567500000     400.981044000000     400.792431000000
315 1 6  0.000     442.432510500000     400.150000000000     400.000000000000
316 1 3  0.000     442.432510500000     400.881044000000     399.307569000000
317 1 4  0.000     442.432510500000     400.981044000000     400.792431000000
318 1 5  0.000     443.016212500000     400.981044000000     400.792431000000
319 1 6  0.000     444.939155500000     400.150000000000     400.000000000000
320 1 3  0.000     444.939155500000     400.881044000000     399.307569000000
321 1 4  0.000     444.939155500000     400.981044000000     400.792431000000
322 1 5  0.000     445.522857500000     400.981044000000     400.792431000000
323 1 6  0.000     447.445801500000     400.150000000000     400.000000000000
324 1 3  0.000     447.445801500000     400.881044000000     399.307569000000
325 1 4  0.000     447.445801500000     400.981044000000     400.792431000000
326 1 5  0.000     448.029503500000     400.981044000000     400.792431000000
327 1 6  0.000     449.952446500000     400.150000000000     400.000000000000
328 1 3  0.000     449.952446500000     400.881044000000     399.307569000000
329 1 4  0.000     449.952446500000     400.981044000000     400.792431000000
330 1 5  0.000     450.536148500000     400.981044000000     400.792431000000
331 1 6  0.000     452.459091500000     400.150000000000     400.000000000000
332 1 3  0.000     452.459091500000     400.881044000000     399.307569000000
333 1 4  0.000     452.459091500000     400.981044000000     400.792431000000
334 1 5  0.000     453.042793500000     400.981044000000     400.792431000000
335 1 6  0.000     454.965736500000     400.150000000000     400.000000000000
336 1 3  0.000     454.965736500000     400.881044000000     399.307569000000
337 1 4  0.000     454.965736500000     400.981044000000     400.792431000000
338 1 5  0.000     455.549438500000     400.981044000000     400.792431000000
339 1 6  0.000     457.472381500000     400.150000000000     400.000000000000
340 1 3  0.000     457.472381500000     400.881044000000     399.307569000000
341 1 4  0.000     457.472381500000     400.981044000000     400.792431000000
342 1 5  0.000     458.056076500000     400.981044000000     400.792431000000
343 1 6  0.000     459.979027500000     400.150000000000     400.000000000000
344 1 3  0.000     459.979027500000     400.881044000000     399.307569000000
345 1 4  0.000     459.979027500000     400.981044000000     400.792431000000
346 1 5  0.000     460.562721500000     400.981044000000     400.792431000000
347 1 6  0.000     462.485672500000     400.150000000000     400.000000000000
348 1 3  0.000     462.485672500000     400.881044000000     399.307569000000
349 1 4  0.000     462.485672500000     400.981044000000     400.792431000000
350 1 5  0.000     463.069366500000     400.981044000000     400.792431000000
351 1 1  0.000     337.153439500000     399.650000000000     400.000000000000
352 1 3  0.000     337.153439500000     400.281044000000     400.892431000000
353 1 3  0.000     337.153439500000     400.281044000000     399.107569000000
354 1 3  0.000     336.261008500000     399.018956000000     400.000000000000
355 1 1  0.000     463.738991500000     399.650000000000     400.000000000000
356 1 3  0.000     463.738991500000     400.281044000000     400.892431000000
357 1 3  0.000     463.738991500000     400.281044000000     399.107569000000
358 1 3  0.000     463.738991500000     399.018956000000     400.000000000000

Bonds

1 15 1 2
2 15 1 3
3 15 4 5
4 15 4 6
5 15 7 8
6 15 7 9
7 15 10 11
8 15 10 12
9 15 13 14
10 15 13 15
11 15 16 17
12 15 16 18
13 15 19 20
14 15 19 21
15 15 22 23
16 15 22 24
17 15 25 26
18 15 25 27
19 15 28 29
20 15 28 30
21 15 31 32
22 15 31 33
23 15 34 35
24 15 34 36
25 15 37 38
26 15 37 39
27 15 40 41
28 15 40 42
29 15 43 44
30 15 43 45
31 15 46 47
32 15 46 48
33 15 49 50
34 15 49 51
35 15 52 53
36 15 52 54
37 15 55 56
38 15 55 57
39 15 58 59
40 15 58 60
41 15 61 62
42 15 61 63
43 15 64 65
44 15 64 66
45 15 67 68
46 15 67 69
47 15 70 71
48 15 70 72
49 15 73 74
50 15 73 75
51 15 76 77
52 15 76 78
53 15 79 80
54 15 79 81
55 15 82 83
56 15 82 84
57 15 85 86
58 15 85 87
59 15 88 89
60 15 88 90
61 15 91 92
62 15 91 93
63 15 94 95
64 15 94 96
65 15 97 98
66 15 97 99
67 15 100 101
68 15 100 102
69 15 103 104
70 15 103 105
71 15 106 107
72 15 106 108
73 15 109 110
74 15 109 111
75 15 112 113
76 15 112 114
77 15 115 116
78 15 115 117
79 15 118 119
80 15 118 120
81 15 121 122
82 15 121 123
83 15 124 125
84 15 124 126
85 15 127 128
86 15 127 129
87 15 130 131
88 15 130 132
89 15 133 134
90 15 133 135
91 15 136 137
92 15 136 138
93 15 139 140
94 15 139 141
95 15 142 143
96 15 142 144
97 15 145 146
98 15 145 147
99 15 148 149
100 15 148 150
101 16 151 152
102 4 151 153
103 1 153 154
104 16 155 156
105 4 155 157
106 1 157 158
107 16 159 160
108 4 159 161
109 1 161 162
110 16 163 164
111 4 163 165
112 1 165 166
113 16 167 168
114 4 167 169
115 1 169 170
116 16 171 172
117 4 171 173
118 1 173 174
119 16 175 176
120 4 175 177
121 1 177 178
122 16 179 180